<VTKFile type='UnstructuredGrid' byte_order='BigEndian'>
<UnstructuredGrid>
<Piece NumberOfPoints='16' NumberOfCells='9'>
<Points>
<DataArray type='Float32' NumberOfComponents='3' Name='points' format='ascii'>
0 0 0
1 0 1
2 0 2
3 0 3
0 1 0
1 1 1
2 1 2
3 1 3
0 2 0
1 2 1
2 2 2
3 2 3
0 3 0
1 3 1
2 3 2
3 3 3
</DataArray>
</Points>
<Cells>
<DataArray type='Int32' NumberOfComponents='1' Name='connectivity' format='ascii'>
0
1
5
4
1
2
6
5
2
3
7
6
4
5
9
8
5
6
10
9
6
7
11
10
8
9
13
12
9
10
14
13
10
11
15
14
</DataArray>
<DataArray type='Int32' NumberOfComponents='1' Name='offsets' format='ascii'>
4
8
12
16
20
24
28
32
36
</DataArray>
<DataArray type='Int32' NumberOfComponents='1' Name='types' format='ascii'>
9
9
9
9
9
9
9
9
9
</DataArray>
</Cells>
<CellData>
<DataArray type='Float32' NumberOfComponents='1' Name='pressure' format='ascii'>
0
0
0
0
0
0
0
0
0
</DataArray>
<DataArray type='Float32' NumberOfComponents='1' Name='density' format='ascii'>
0
0
0
0
0
0
0
0
0
</DataArray>
<DataArray type='Float32' NumberOfComponents='1' Name='temperature' format='ascii'>
0
0
0
0
0
0
0
0
0
</DataArray>
<DataArray type='Float32' NumberOfComponents='3' Name='velocity' format='ascii'>
0 0 0
0 0 0
0 0 0
0 0 0
0 0 0
0 0 0
0 0 0
0 0 0
0 0 0
</DataArray>
</CellData>
</Piece>
</UnstructuredGrid>
</VTKFile>
